         Total SCF energy =    -40.149361084751
@ Step       Energy      Delta E   Gmax     Grms     Xrms     Xmax   Walltime
@ ---- ---------------- -------- -------- -------- -------- -------- --------
@    0     -40.14936108  0.0D+00  0.03640  0.03255  0.00000  0.00000      3.3
         Total SCF energy =    -40.175382300960
         Total SCF energy =    -40.178326065016
@    1     -40.17832607 -2.9D-02  0.01260  0.01127  0.14209  0.15886     19.3
         Total SCF energy =    -40.180298049684

 Vector    6  Occ=0.000000D+00  E= 2.542418D-01

 Vector    7  Occ=0.000000D+00  E= 3.226383D-01

 Vector    8  Occ=0.000000D+00  E= 3.226383D-01

 Vector    9  Occ=0.000000D+00  E= 3.226383D-01

 Vector   10  Occ=0.000000D+00  E= 7.444147D-01

 Vector   11  Occ=0.000000D+00  E= 7.444147D-01

 Vector   12  Occ=0.000000D+00  E= 7.444147D-01

 Vector   13  Occ=0.000000D+00  E= 1.223597D+00

 Vector   14  Occ=0.000000D+00  E= 1.223597D+00

 Vector   15  Occ=0.000000D+00  E= 1.223597D+00

 Vector    2  Occ=1.000000D+00  E=-9.451159D-01

 Vector    3  Occ=1.000000D+00  E=-5.425533D-01

 Vector    4  Occ=1.000000D+00  E=-5.425533D-01

 Vector    5  Occ=1.000000D+00  E=-5.425532D-01

 Vector    6  Occ=0.000000D+00  E= 2.542418D-01

 Vector    7  Occ=0.000000D+00  E= 3.226383D-01

 Vector    8  Occ=0.000000D+00  E= 3.226383D-01

 Vector    9  Occ=0.000000D+00  E= 3.226383D-01

 Vector   10  Occ=0.000000D+00  E= 7.444147D-01

 Vector   11  Occ=0.000000D+00  E= 7.444147D-01

 Vector   12  Occ=0.000000D+00  E= 7.444147D-01

 Vector   13  Occ=0.000000D+00  E= 1.223597D+00

 Vector   14  Occ=0.000000D+00  E= 1.223597D+00

 Vector   15  Occ=0.000000D+00  E= 1.223597D+00

         Total SCF energy =    -40.180554056651

 Vector    2  Occ=1.000000D+00  E=-9.491650D-01

 Vector    3  Occ=1.000000D+00  E=-5.450929D-01

 Vector    4  Occ=1.000000D+00  E=-5.450929D-01

 Vector    5  Occ=1.000000D+00  E=-5.450929D-01

 Vector    6  Occ=0.000000D+00  E= 2.562979D-01

 Vector    7  Occ=0.000000D+00  E= 3.254801D-01

 Vector    8  Occ=0.000000D+00  E= 3.254801D-01

 Vector    9  Occ=0.000000D+00  E= 3.254801D-01

 Vector   10  Occ=0.000000D+00  E= 7.403455D-01

 Vector   11  Occ=0.000000D+00  E= 7.403455D-01

 Vector   12  Occ=0.000000D+00  E= 7.403455D-01

 Vector   13  Occ=0.000000D+00  E= 1.233470D+00

 Vector   14  Occ=0.000000D+00  E= 1.233470D+00

 Vector   15  Occ=0.000000D+00  E= 1.233470D+00

 Vector    2  Occ=1.000000D+00  E=-9.491650D-01

 Vector    3  Occ=1.000000D+00  E=-5.450929D-01

 Vector    4  Occ=1.000000D+00  E=-5.450929D-01

 Vector    5  Occ=1.000000D+00  E=-5.450929D-01

 Vector    6  Occ=0.000000D+00  E= 2.562979D-01

 Vector    7  Occ=0.000000D+00  E= 3.254801D-01

 Vector    8  Occ=0.000000D+00  E= 3.254801D-01

 Vector    9  Occ=0.000000D+00  E= 3.254801D-01

 Vector   10  Occ=0.000000D+00  E= 7.403455D-01

 Vector   11  Occ=0.000000D+00  E= 7.403455D-01

 Vector   12  Occ=0.000000D+00  E= 7.403455D-01

 Vector   13  Occ=0.000000D+00  E= 1.233470D+00

 Vector   14  Occ=0.000000D+00  E= 1.233470D+00

 Vector   15  Occ=0.000000D+00  E= 1.233470D+00

@    2     -40.18055406 -2.2D-03  0.00009  0.00008  0.02684  0.03001     34.6
         Total SCF energy =    -40.180554177849

 Vector    2  Occ=1.000000D+00  E=-9.490855D-01

 Vector    3  Occ=1.000000D+00  E=-5.450433D-01

 Vector    4  Occ=1.000000D+00  E=-5.450433D-01

 Vector    5  Occ=1.000000D+00  E=-5.450433D-01

 Vector    6  Occ=0.000000D+00  E= 2.562582D-01

 Vector    7  Occ=0.000000D+00  E= 3.254243D-01

 Vector    8  Occ=0.000000D+00  E= 3.254243D-01

 Vector    9  Occ=0.000000D+00  E= 3.254243D-01

 Vector   10  Occ=0.000000D+00  E= 7.404248D-01

 Vector   11  Occ=0.000000D+00  E= 7.404248D-01

 Vector   12  Occ=0.000000D+00  E= 7.404248D-01

 Vector   13  Occ=0.000000D+00  E= 1.233273D+00

 Vector   14  Occ=0.000000D+00  E= 1.233273D+00

 Vector   15  Occ=0.000000D+00  E= 1.233273D+00

 Vector    2  Occ=1.000000D+00  E=-9.490855D-01

 Vector    3  Occ=1.000000D+00  E=-5.450433D-01

 Vector    4  Occ=1.000000D+00  E=-5.450433D-01

 Vector    5  Occ=1.000000D+00  E=-5.450433D-01

 Vector    6  Occ=0.000000D+00  E= 2.562582D-01

 Vector    7  Occ=0.000000D+00  E= 3.254243D-01

 Vector    8  Occ=0.000000D+00  E= 3.254243D-01

 Vector    9  Occ=0.000000D+00  E= 3.254243D-01

 Vector   10  Occ=0.000000D+00  E= 7.404248D-01

 Vector   11  Occ=0.000000D+00  E= 7.404248D-01

 Vector   12  Occ=0.000000D+00  E= 7.404248D-01

 Vector   13  Occ=0.000000D+00  E= 1.233273D+00

 Vector   14  Occ=0.000000D+00  E= 1.233273D+00

 Vector   15  Occ=0.000000D+00  E= 1.233273D+00

       Multipole analysis of the density wrt the origin
       ------------------------------------------------

     L   x y z        total         alpha         beta         nuclear
     -   - - -        -----         -----         ----         -------
     0   0 0 0     -0.000000     -5.000000     -5.000000     10.000000

     1   1 0 0     -0.000000     -0.000000     -0.000000      0.000000
     1   0 1 0      0.000000      0.000000      0.000000     -0.000000
     1   0 0 1      0.000000      0.000000      0.000000     -0.000000

     2   2 0 0     -6.255664     -5.915453     -5.915453      5.575242
     2   1 1 0     -0.000000      0.000000      0.000000     -0.000000
     2   1 0 1     -0.000000      0.000000      0.000000     -0.000000
     2   0 2 0     -6.255664     -5.915453     -5.915453      5.575242
     2   0 1 1      0.000000     -0.000000     -0.000000      0.000000

         Total SCF energy =    -40.180554177849
@    3     -40.18055418 -1.2D-07  0.00001  0.00001  0.00019  0.00021     62.8
@    3     -40.18055418 -1.2D-07  0.00001  0.00001  0.00019  0.00021     62.8

 Output coordinates in angstroms (scale by  1.889725989 to convert to a.u.)

  No.       Tag          Charge          X              Y              Z
 ---- ---------------- ---------- -------------- -------------- --------------
    1 C                    6.0000     0.00000000    -0.00000001    -0.00000001
    2 H                    1.0000     0.62474531     0.62474532     0.62474532
    3 H                    1.0000    -0.62474532    -0.62474531     0.62474533
    4 H                    1.0000    -0.62474533     0.62474533    -0.62474531
    5 H                    1.0000     0.62474533    -0.62474533    -0.62474532

 Total times  cpu:       60.7s     wall:       62.8s
